         Total SCF energy =   -994.300609496460

 Vector   18  Occ=2.000000D+00  E=-1.093162D+00  Symmetry=a1g

 Vector   19  Occ=2.000000D+00  E=-9.163106D-01  Symmetry=t1u

 Vector   20  Occ=2.000000D+00  E=-9.163106D-01  Symmetry=t1u

 Vector   21  Occ=2.000000D+00  E=-9.163106D-01  Symmetry=t1u

 Vector   22  Occ=2.000000D+00  E=-8.249968D-01  Symmetry=t2g

 Vector   23  Occ=2.000000D+00  E=-8.249968D-01  Symmetry=t2g

 Vector   24  Occ=2.000000D+00  E=-8.249968D-01  Symmetry=t2g

 Vector   25  Occ=2.000000D+00  E=-7.308628D-01  Symmetry=eg

 Vector   26  Occ=2.000000D+00  E=-7.308628D-01  Symmetry=eg

 Vector   27  Occ=2.000000D+00  E=-7.247657D-01  Symmetry=t2u

 Vector   28  Occ=2.000000D+00  E=-7.247657D-01  Symmetry=t2u

 Vector   29  Occ=2.000000D+00  E=-7.247657D-01  Symmetry=t2u

 Vector   30  Occ=2.000000D+00  E=-7.122464D-01  Symmetry=t1u

 Vector   31  Occ=2.000000D+00  E=-7.122464D-01  Symmetry=t1u

 Vector   32  Occ=2.000000D+00  E=-7.122464D-01  Symmetry=t1u

 Vector   33  Occ=2.000000D+00  E=-6.759199D-01  Symmetry=t1g

 Vector   34  Occ=2.000000D+00  E=-6.759199D-01  Symmetry=t1g

 Vector   35  Occ=2.000000D+00  E=-6.759199D-01  Symmetry=t1g

 Vector   36  Occ=0.000000D+00  E= 1.485090D-01  Symmetry=a1g

 Vector   37  Occ=0.000000D+00  E= 3.233024D-01  Symmetry=t1u

 Vector   38  Occ=0.000000D+00  E= 3.233024D-01  Symmetry=t1u

 Vector   39  Occ=0.000000D+00  E= 3.233024D-01  Symmetry=t1u

 Vector   40  Occ=0.000000D+00  E= 3.527762D-01  Symmetry=a1g

 Vector   41  Occ=0.000000D+00  E= 4.066018D-01  Symmetry=t1u

 Vector   42  Occ=0.000000D+00  E= 4.066018D-01  Symmetry=t1u

 Vector   43  Occ=0.000000D+00  E= 4.066018D-01  Symmetry=t1u

 Vector   44  Occ=0.000000D+00  E= 6.047227D-01  Symmetry=t2g

 Vector   45  Occ=0.000000D+00  E= 6.047227D-01  Symmetry=t2g

          Total MP2 energy          -996.183602068360
@ Step       Energy      Delta E   Gmax     Grms     Xrms     Xmax   Walltime
@ ---- ---------------- -------- -------- -------- -------- -------- --------
@    0    -996.18360207  0.0D+00  0.00000  0.00000  0.00000  0.00000     98.5
         Total SCF energy =   -994.300610638522

 Vector   18  Occ=2.000000D+00  E=-1.093162D+00  Symmetry=a1g

 Vector   19  Occ=2.000000D+00  E=-9.163116D-01  Symmetry=t1u

 Vector   20  Occ=2.000000D+00  E=-9.163116D-01  Symmetry=t1u

 Vector   21  Occ=2.000000D+00  E=-9.163116D-01  Symmetry=t1u

 Vector   22  Occ=2.000000D+00  E=-8.249978D-01  Symmetry=t2g

 Vector   23  Occ=2.000000D+00  E=-8.249978D-01  Symmetry=t2g

 Vector   24  Occ=2.000000D+00  E=-8.249978D-01  Symmetry=t2g

 Vector   25  Occ=2.000000D+00  E=-7.308638D-01  Symmetry=eg

 Vector   26  Occ=2.000000D+00  E=-7.308638D-01  Symmetry=eg

 Vector   27  Occ=2.000000D+00  E=-7.247658D-01  Symmetry=t2u

 Vector   28  Occ=2.000000D+00  E=-7.247658D-01  Symmetry=t2u

 Vector   29  Occ=2.000000D+00  E=-7.247658D-01  Symmetry=t2u

 Vector   30  Occ=2.000000D+00  E=-7.122466D-01  Symmetry=t1u

 Vector   31  Occ=2.000000D+00  E=-7.122466D-01  Symmetry=t1u

 Vector   32  Occ=2.000000D+00  E=-7.122466D-01  Symmetry=t1u

 Vector   33  Occ=2.000000D+00  E=-6.759195D-01  Symmetry=t1g

 Vector   34  Occ=2.000000D+00  E=-6.759195D-01  Symmetry=t1g

 Vector   35  Occ=2.000000D+00  E=-6.759195D-01  Symmetry=t1g

 Vector   36  Occ=0.000000D+00  E= 1.485138D-01  Symmetry=a1g

 Vector   37  Occ=0.000000D+00  E= 3.233048D-01  Symmetry=t1u

 Vector   38  Occ=0.000000D+00  E= 3.233048D-01  Symmetry=t1u

 Vector   39  Occ=0.000000D+00  E= 3.233048D-01  Symmetry=t1u

 Vector   40  Occ=0.000000D+00  E= 3.527762D-01  Symmetry=a1g

 Vector   41  Occ=0.000000D+00  E= 4.066035D-01  Symmetry=t1u

 Vector   42  Occ=0.000000D+00  E= 4.066035D-01  Symmetry=t1u

 Vector   43  Occ=0.000000D+00  E= 4.066035D-01  Symmetry=t1u

 Vector   44  Occ=0.000000D+00  E= 6.047248D-01  Symmetry=t2g

 Vector   45  Occ=0.000000D+00  E= 6.047248D-01  Symmetry=t2g

       Multipole analysis of the density wrt the origin
       ------------------------------------------------

     L   x y z        total         open         nuclear
     -   - - -        -----         ----         -------
     0   0 0 0      0.000000      0.000000     70.000000

     1   1 0 0      0.000000      0.000000      0.000000
     1   0 1 0      0.000000      0.000000      0.000000
     1   0 0 1      0.000000      0.000000      0.000000

     2   2 0 0    -31.793588      0.000000    158.389465
     2   1 1 0      0.000000      0.000000      0.000000
     2   1 0 1      0.000000      0.000000      0.000000
     2   0 2 0    -31.793588      0.000000    158.389465
     2   0 1 1      0.000000      0.000000      0.000000

          Total MP2 energy          -996.183602063202
         Total SCF energy =   -994.300610638522
          Total MP2 energy          -996.183602063202
@    1    -996.18360206  5.2D-09  0.00000  0.00000  0.00000  0.00001    195.4
@    1    -996.18360206  5.2D-09  0.00000  0.00000  0.00000  0.00001    195.4

 Output coordinates in a.u. (scale by  1.000000000 to convert to a.u.)

  No.       Tag          Charge          X              Y              Z
 ---- ---------------- ---------- -------------- -------------- --------------
    1 S                   16.0000     0.00000000     0.00000000     0.00000000
    2 F                    9.0000     0.00000000     2.96638074     0.00000000
    3 F                    9.0000     0.00000000    -2.96638074     0.00000000
    4 F                    9.0000     0.00000000     0.00000000     2.96638074
    5 F                    9.0000     0.00000000     0.00000000    -2.96638074
    6 F                    9.0000     2.96638074     0.00000000     0.00000000
    7 F                    9.0000    -2.96638074     0.00000000     0.00000000

          Total MP2 energy          -996.183602163070
          Total MP2 energy          -996.183601758028
          Total MP2 energy          -996.183601758029
          Total MP2 energy          -996.183601758028
          Total MP2 energy          -996.183601758027
          Total MP2 energy          -996.183601758027
          Total MP2 energy          -996.183601758027
          Total MP2 energy          -996.183601982161
          Total MP2 energy          -996.183601982527
          Total MP2 energy          -996.183602105047
          Total MP2 energy          -996.183602105047
          Total MP2 energy          -996.183602105046
          Total MP2 energy          -996.183602105045
 Zero-Point correction to Energy  =   13.530 kcal/mol  (  0.021561 au)
 Thermal correction to Energy     =   16.964 kcal/mol  (  0.027034 au)
 Thermal correction to Enthalpy   =   17.556 kcal/mol  (  0.027977 au)
 Total Entropy                    =   69.577 cal/mol-K
   - Translational                =   40.827 cal/mol-K (mol. weight = 145.9625)
   - Rotational                   =   20.869 cal/mol-K (symmetry #  =       24)
   - Vibrational                  =    7.881 cal/mol-K
   - Translational                  =    2.979 cal/mol-K
   - Rotational                     =    2.979 cal/mol-K
   - Vibrational                    =   15.073 cal/mol-K
 P.Frequency        0.00        0.00        0.00        0.00        0.00        0.00
 P.Frequency      347.65      347.65      347.65      520.78      520.78      520.78
 P.Frequency      615.64      615.64      615.64      656.72      656.72      780.33
 P.Frequency      974.19      974.19      974.19
 Zero-Point correction to Energy  =   13.439 kcal/mol  (  0.021417 au)
 Thermal correction to Energy     =   16.882 kcal/mol  (  0.026903 au)
 Thermal correction to Enthalpy   =   17.474 kcal/mol  (  0.027847 au)
 Total Entropy                    =   69.615 cal/mol-K
   - Translational                =   40.827 cal/mol-K (mol. weight = 145.9625)
   - Rotational                   =   20.869 cal/mol-K (symmetry #  =       24)
   - Vibrational                  =    7.918 cal/mol-K
   - Translational                  =    2.979 cal/mol-K
   - Rotational                     =    2.979 cal/mol-K
   - Vibrational                    =   15.156 cal/mol-K
 P.Frequency        0.00        0.00        0.00        0.00        0.00        0.00
 P.Frequency      347.65      347.65      347.65      520.78      520.78      520.78
 P.Frequency      612.86      612.86      612.86      656.72      656.72      780.33
 P.Frequency      955.87      955.87      955.87

 Normal Eigenvalue ||           Projected Infra Red Intensities
  Mode   [cm**-1]  || [atomic units] [(debye/angs)**2] [(KM/mol)] [arbitrary]
 ------ ---------- || -------------- ----------------- ---------- -----------
    1        0.000 ||    0.000000           0.000         0.000       0.000
    2        0.000 ||    0.000000           0.000         0.000       0.000
    3        0.000 ||    0.000000           0.000         0.000       0.000
    4        0.000 ||    0.000000           0.000         0.000       0.000
    5        0.000 ||    0.000000           0.000         0.000       0.000
    6        0.000 ||    0.000000           0.000         0.000       0.000
    7      347.654 ||    0.000000           0.000         0.000       0.000
    8      347.654 ||    0.000000           0.000         0.000       0.000
    9      347.654 ||    0.000000           0.000         0.000       0.000
   10      520.785 ||    0.000000           0.000         0.000       0.000
   11      520.785 ||    0.000000           0.000         0.000       0.000
   12      520.785 ||    0.000000           0.000         0.000       0.000
   13      612.863 ||    0.031473           0.726        30.682       4.980
   14      612.863 ||    0.031473           0.726        30.682       4.980
   15      612.863 ||    0.031473           0.726        30.682       4.980
   16      656.716 ||    0.000000           0.000         0.000       0.000
   17      656.716 ||    0.000000           0.000         0.000       0.000
   18      780.332 ||    0.000000           0.000         0.000       0.000
   19      955.867 ||    0.410965           9.481       400.629      65.020
   20      955.867 ||    0.410965           9.481       400.629      65.020
   21      955.867 ||    0.410965           9.481       400.629      65.020
 ----------------------------------------------------------------------------

 Total times  cpu:      516.3s     wall:     1471.4s
